CHARMM-GUI lammps input

             42472  atoms
              8848  bonds
              4424  angles

                 4  atom types
                 1  bond types
                 1  angle types

    -100.0000      220.0000 xlo xhi
    -100.0000      220.0000 ylo yhi
    -20.0000      200.000 zlo zhi

Masses

       1         1.008  # HT
       2        15.999  # OT
       3         1.00  # surface
       4         1.00  # pillars

Atoms

1  1  2  -0.834   51.18688 61.031476   86.144493   #  SOLV-1-TIP3-OH2-OT
2  1  1  0.417 50.813105   60.873085   87.011337   #  SOLV-1-TIP3-H1-HT
3  1  1  0.417 51.342932   61.975536   86.119274   #  SOLV-1-TIP3-H2-HT
4  2  2  -0.834   48.34742 53.792078   87.436592   #  SOLV-2-TIP3-OH2-OT
5  2  1  0.417 49.129604   53.827234   86.885963   #  SOLV-2-TIP3-H1-HT
6  2  1  0.417 47.973331   54.671236   87.37851 #  SOLV-2-TIP3-H2-HT
7  3  2  -0.834   51.769384   43.036774   90.57058 #  SOLV-3-TIP3-OH2-OT
8  3  1  0.417 51.837297   43.775482   91.175545   #  SOLV-3-TIP3-H1-HT
9  3  1  0.417 51.051941   43.27327 89.982666   #  SOLV-3-TIP3-H2-HT
10 4  2  -0.834   43.276535   53.717667   87.570492   #  SOLV-4-TIP3-OH2-OT
11 4  1  0.417 43.106601   53.523315   88.492245   #  SOLV-4-TIP3-H1-HT
12 4  1  0.417 42.574172   53.271204   87.097656   #  SOLV-4-TIP3-H2-HT
13 5  2  -0.834   48.808764   43.689373   85.54525 #  SOLV-5-TIP3-OH2-OT
14 5  1  0.417 49.753033   43.533215   85.532768   #  SOLV-5-TIP3-H1-HT
15 5  1  0.417 48.70726 44.507591   86.031605   #  SOLV-5-TIP3-H2-HT
16 6  2  -0.834   40.485592   47.276489   86.461124   #  SOLV-6-TIP3-OH2-OT
17 6  1  0.417 39.79056 47.129227   87.102543   #  SOLV-6-TIP3-H1-HT
18 6  1  0.417 41.289772   47.299992   86.979774   #  SOLV-6-TIP3-H2-HT
19 7  2  -0.834   42.715144   60.24378 87.407368   #  SOLV-7-TIP3-OH2-OT
20 7  1  0.417 42.215009   59.512712   87.770119   #  SOLV-7-TIP3-H1-HT
21 7  1  0.417 42.416976   61.007297   87.90168 #  SOLV-7-TIP3-H2-HT
22 8  2  -0.834   48.818905   51.820299   89.780857   #  SOLV-8-TIP3-OH2-OT
23 8  1  0.417 48.401398   52.149179   90.576927   #  SOLV-8-TIP3-H1-HT
24 8  1  0.417 49.444099   51.165123   90.090881   #  SOLV-8-TIP3-H2-HT
25 9  2  -0.834   48.757336   46.254894   85.805405   #  SOLV-9-TIP3-OH2-OT
26 9  1  0.417 48.012695   46.741409   86.159111   #  SOLV-9-TIP3-H1-HT
27 9  1  0.417 49.5208  46.636055   86.239029   #  SOLV-9-TIP3-H2-HT
28 10 2  -0.834   54.341459   43.29594 89.124146   #  SOLV-10-TIP3-OH2-OT
29 10 1  0.417 55.254736   43.028763   89.020409   #  SOLV-10-TIP3-H1-HT
30 10 1  0.417 54.095293   42.977283   89.992546   #  SOLV-10-TIP3-H2-HT
31 11 2  -0.834   54.182859   58.619404   88.743977   #  SOLV-11-TIP3-OH2-OT
32 11 1  0.417 54.850853   58.985847   88.164543   #  SOLV-11-TIP3-H1-HT
33 11 1  0.417 53.606596   59.357388   88.942825   #  SOLV-11-TIP3-H2-HT
34 12 2  -0.834   44.850992   47.802261   86.802452   #  SOLV-12-TIP3-OH2-OT
35 12 1  0.417 44.424592   46.952164   86.91082 #  SOLV-12-TIP3-H1-HT
36 12 1  0.417 44.16818 48.36927 86.443962   #  SOLV-12-TIP3-H2-HT
37 13 2  -0.834   53.419187   50.741405   87.356358   #  SOLV-13-TIP3-OH2-OT
38 13 1  0.417 53.964512   51.077168   88.067768   #  SOLV-13-TIP3-H1-HT
39 13 1  0.417 52.55812 50.612808   87.754105   #  SOLV-13-TIP3-H2-HT
40 14 2  -0.834   47.478085   50.586498   85.792038   #  SOLV-14-TIP3-OH2-OT
41 14 1  0.417 48.113577   50.324158   86.458004   #  SOLV-14-TIP3-H1-HT
42 14 1  0.417 46.626064   50.403511   86.188019   #  SOLV-14-TIP3-H2-HT
43 15 2  -0.834   54.823135   41.223896   85.254829   #  SOLV-15-TIP3-OH2-OT
44 15 1  0.417 55.049179   41.995628   85.774101   #  SOLV-15-TIP3-H1-HT
45 15 1  0.417 55.568712   40.633801   85.364914   #  SOLV-15-TIP3-H2-HT
46 16 2  -0.834   55.254269   56.7889  89.937168   #  SOLV-16-TIP3-OH2-OT
47 16 1  0.417 55.999844   56.322044   89.559753   #  SOLV-16-TIP3-H1-HT
48 16 1  0.417 55.642708   57.543575   90.379635   #  SOLV-16-TIP3-H2-HT
49 17 2  -0.834   50.874725   59.268364   88.532127   #  SOLV-17-TIP3-OH2-OT
50 17 1  0.417 51.47522 58.909565   89.185562   #  SOLV-17-TIP3-H1-HT
51 17 1  0.417 50.691477   58.534279   87.945877   #  SOLV-17-TIP3-H2-HT
52 18 2  -0.834   45.608476   52.034941   87.788528   #  SOLV-18-TIP3-OH2-OT
53 18 1  0.417 44.990715   52.185621   87.073059   #  SOLV-18-TIP3-H1-HT
54 18 1  0.417 45.419508   52.729837   88.419132   #  SOLV-18-TIP3-H2-HT
55 19 2  -0.834   51.92065 66.312752   87.667786   #  SOLV-19-TIP3-OH2-OT
56 19 1  0.417 51.348549   65.83872 87.06427 #  SOLV-19-TIP3-H1-HT
57 19 1  0.417 51.846552   65.835028   88.493908   #  SOLV-19-TIP3-H2-HT
58 20 2  -0.834   48.944641   64.063804   86.649937   #  SOLV-20-TIP3-OH2-OT
59 20 1  0.417 48.147429   63.752948   87.078987   #  SOLV-20-TIP3-H1-HT
60 20 1  0.417 49.645704   63.540215   87.037857   #  SOLV-20-TIP3-H2-HT
61 21 2  -0.834   46.003935   58.467045   88.52079 #  SOLV-21-TIP3-OH2-OT
62 21 1  0.417 45.18374 58.032948   88.286064   #  SOLV-21-TIP3-H1-HT
63 21 1  0.417 45.764789   59.065407   89.228561   #  SOLV-21-TIP3-H2-HT
64 22 2  -0.834   53.054044   46.87952 90.210533   #  SOLV-22-TIP3-OH2-OT
65 22 1  0.417 52.995804   47.816353   90.023178   #  SOLV-22-TIP3-H1-HT
66 22 1  0.417 52.26354 46.685925   90.714359   #  SOLV-22-TIP3-H2-HT
67 23 2  -0.834   55.482132   53.415722   88.822495   #  SOLV-23-TIP3-OH2-OT
68 23 1  0.417 54.757824   52.893705   88.477318   #  SOLV-23-TIP3-H1-HT
69 23 1  0.417 55.197639   54.323065   88.71262 #  SOLV-23-TIP3-H2-HT
70 24 2  -0.834   55.437048   45.768486   86.638809   #  SOLV-24-TIP3-OH2-OT
71 24 1  0.417 54.876539   45.237206   86.073307   #  SOLV-24-TIP3-H1-HT
72 24 1  0.417 54.831299   46.193848   87.24575 #  SOLV-24-TIP3-H2-HT
73 25 2  -0.834   39.208889   41.725643   85.539059   #  SOLV-25-TIP3-OH2-OT
74 25 1  0.417 38.974213   41.458885   86.427841   #  SOLV-25-TIP3-H1-HT
75 25 1  0.417 40.0919  42.085743   85.621841   #  SOLV-25-TIP3-H2-HT
76 26 2  -0.834   45.859376   42.307629   87.013103   #  SOLV-26-TIP3-OH2-OT
77 26 1  0.417 46.240744   43.126419   87.329941   #  SOLV-26-TIP3-H1-HT
78 26 1  0.417 46.172884   41.643536   87.627014   #  SOLV-26-TIP3-H2-HT
79 27 2  -0.834   45.835248   54.646906   87.773396   #  SOLV-27-TIP3-OH2-OT
80 27 1  0.417 46.216564   55.497162   87.992264   #  SOLV-27-TIP3-H1-HT
81 27 1  0.417 44.926236   54.842794   87.546471   #  SOLV-27-TIP3-H2-HT
82 28 2  -0.834   48.133596   38.215542   87.555256   #  SOLV-28-TIP3-OH2-OT
83 28 1  0.417 48.331871   38.90012 88.194229   #  SOLV-28-TIP3-H1-HT
84 28 1  0.417 48.045248   38.681671   86.723881   #  SOLV-28-TIP3-H2-HT
85 29 2  -0.834   52.142431   40.568489   89.809456   #  SOLV-29-TIP3-OH2-OT
86 29 1  0.417 51.375381   41.087498   90.051201   #  SOLV-29-TIP3-H1-HT
87 29 1  0.417 51.998079   39.718704   90.225716   #  SOLV-29-TIP3-H2-HT
88 30 2  -0.834   46.651648   60.457396   86.394722   #  SOLV-30-TIP3-OH2-OT
89 30 1  0.417 47.087357   60.778704   87.184132   #  SOLV-30-TIP3-H1-HT
90 30 1  0.417 46.19462 59.665592   86.678223   #  SOLV-30-TIP3-H2-HT
91 31 2  -0.834   51.816652   47.815418   86.73761 #  SOLV-31-TIP3-OH2-OT
92 31 1  0.417 51.740316   48.590214   87.294476   #  SOLV-31-TIP3-H1-HT
93 31 1  0.417 52.632168   47.398949   87.01638 #  SOLV-31-TIP3-H2-HT
94 32 2  -0.834   53.162411   59.305492   85.735619   #  SOLV-32-TIP3-OH2-OT
95 32 1  0.417 52.38912 59.428524   85.185097   #  SOLV-32-TIP3-H1-HT
96 32 1  0.417 52.928984   59.710104   86.571106   #  SOLV-32-TIP3-H2-HT
97 33 2  -0.834   54.637236   52.461523   85.28223 #  SOLV-33-TIP3-OH2-OT
98 33 1  0.417 53.747152   52.690187   85.550034   #  SOLV-33-TIP3-H1-HT
99 33 1  0.417 54.814918   51.631207   85.724075   #  SOLV-33-TIP3-H2-HT
100   34 2  -0.834   51.840572   55.044701   90.937859   #  SOLV-34-TIP3-OH2-OT
101   34 1  0.417 52.643557   54.858931   91.424629   #  SOLV-34-TIP3-H1-HT
102   34 1  0.417 52.110764   55.657681   90.254108   #  SOLV-34-TIP3-H2-HT
103   35 2  -0.834   55.264875   61.123361   88.462448   #  SOLV-35-TIP3-OH2-OT
104   35 1  0.417 54.725948   61.841116   88.795094   #  SOLV-35-TIP3-H1-HT
105   35 1  0.417 55.94046 61.001368   89.129501   #  SOLV-35-TIP3-H2-HT
106   36 2  -0.834   40.073024   51.668314   85.824177   #  SOLV-36-TIP3-OH2-OT
107   36 1  0.417 40.207444   52.517469   86.245014   #  SOLV-36-TIP3-H1-HT
108   36 1  0.417 40.953279   51.303396   85.73354 #  SOLV-36-TIP3-H2-HT
109   37 2  -0.834   46.409275   66.398189   86.851692   #  SOLV-37-TIP3-OH2-OT
110   37 1  0.417 46.309227   66.160705   87.773605   #  SOLV-37-TIP3-H1-HT
111   37 1  0.417 46.950493   65.700765   86.481613   #  SOLV-37-TIP3-H2-HT
112   38 2  -0.834   44.179568   49.282024   89.213898   #  SOLV-38-TIP3-OH2-OT
113   38 1  0.417 43.768352   49.12904 90.064621   #  SOLV-38-TIP3-H1-HT
114   38 1  0.417 45.036476   48.861031   89.282436   #  SOLV-38-TIP3-H2-HT
115   39 2  -0.834   55.575107   45.910446   89.418156   #  SOLV-39-TIP3-OH2-OT
116   39 1  0.417 55.95866 45.079746   89.699371   #  SOLV-39-TIP3-H1-HT
117   39 1  0.417 54.962703   46.140755   90.116829   #  SOLV-39-TIP3-H2-HT
118   40 2  -0.834   47.859921   56.340347   89.978767   #  SOLV-40-TIP3-OH2-OT
119   40 1  0.417 48.63966 56.610125   90.463982   #  SOLV-40-TIP3-H1-HT
120   40 1  0.417 47.621292   55.494932   90.358887   #  SOLV-40-TIP3-H2-HT
121   41 2  -0.834   53.252319   54.73085 85.634064   #  SOLV-41-TIP3-OH2-OT
122   41 1  0.417 52.851295   55.585459   85.475777   #  SOLV-41-TIP3-H1-HT
123   41 1  0.417 53.068344   54.546337   86.555138   #  SOLV-41-TIP3-H2-HT
124   42 2  -0.834   50.705463   45.577541   87.463318   #  SOLV-42-TIP3-OH2-OT
125   42 1  0.417 51.10524 44.727398   87.646721   #  SOLV-42-TIP3-H1-HT
126   42 1  0.417 50.982103   46.134777   88.19075 #  SOLV-42-TIP3-H2-HT
127   43 2  -0.834   50.552689   38.921597   86.657219   #  SOLV-43-TIP3-OH2-OT
128   43 1  0.417 50.58914 39.016392   87.609024   #  SOLV-43-TIP3-H1-HT
129   43 1  0.417 51.060364   39.660931   86.322754   #  SOLV-43-TIP3-H2-HT
130   44 2  -0.834   47.552912   35.194809   85.769627   #  SOLV-44-TIP3-OH2-OT
131   44 1  0.417 48.098911   35.26532 86.552696   #  SOLV-44-TIP3-H1-HT
132   44 1  0.417 47.595345   36.062843   85.3685  #  SOLV-44-TIP3-H2-HT
133   45 2  -0.834   42.599756   57.870865   88.364689   #  SOLV-45-TIP3-OH2-OT
134   45 1  0.417 42.513956   57.594536   89.277081   #  SOLV-45-TIP3-H1-HT
135   45 1  0.417 42.887888   57.084156   87.901733   #  SOLV-45-TIP3-H2-HT
136   46 2  -0.834   52.566128   62.007879   89.660217   #  SOLV-46-TIP3-OH2-OT
137   46 1  0.417 52.95488 62.594752   89.011673   #  SOLV-46-TIP3-H1-HT
138   46 1  0.417 52.816143   62.383632   90.504333   #  SOLV-46-TIP3-H2-HT
139   47 2  -0.834   37.335484   52.934759   85.925991   #  SOLV-47-TIP3-OH2-OT
140   47 1  0.417 37.135803   52.113029   85.477493   #  SOLV-47-TIP3-H1-HT
141   47 1  0.417 36.972471   52.823006   86.804581   #  SOLV-47-TIP3-H2-HT
142   48 2  -0.834   52.540337   59.773232   90.584465   #  SOLV-48-TIP3-OH2-OT
143   48 1  0.417 52.069839   60.606377   90.557838   #  SOLV-48-TIP3-H1-HT
144   48 1  0.417 53.409723   59.999069   90.915287   #  SOLV-48-TIP3-H2-HT
145   49 2  -0.834   51.13332 52.944836   88.796082   #  SOLV-49-TIP3-OH2-OT
146   49 1  0.417 50.386549   53.06946 89.381756   #  SOLV-49-TIP3-H1-HT
147   49 1  0.417 51.718163   53.676315   88.993889   #  SOLV-49-TIP3-H2-HT
148   50 2  -0.834   45.00512 39.785732   86.165035   #  SOLV-50-TIP3-OH2-OT
149   50 1  0.417 44.315289   39.124084   86.21579 #  SOLV-50-TIP3-H1-HT
150   50 1  0.417 45.680028   39.475605   86.768806   #  SOLV-50-TIP3-H2-HT
151   51 2  -0.834   54.914188   51.040243   89.875702   #  SOLV-51-TIP3-OH2-OT
152   51 1  0.417 54.232883   51.420111   90.430489   #  SOLV-51-TIP3-H1-HT
153   51 1  0.417 55.401739   51.794264   89.544048   #  SOLV-51-TIP3-H2-HT
154   52 2  -0.834   53.271456   56.993156   86.484573   #  SOLV-52-TIP3-OH2-OT
155   52 1  0.417 53.097672   57.844135   86.886902   #  SOLV-52-TIP3-H1-HT
156   52 1  0.417 54.156547   57.072144   86.128792   #  SOLV-52-TIP3-H2-HT
157   53 2  -0.834   52.541168   40.825058   87.09594 #  SOLV-53-TIP3-OH2-OT
158   53 1  0.417 51.971977   41.114643   87.809017   #  SOLV-53-TIP3-H1-HT
159   53 1  0.417 52.371441   41.44495 86.386608   #  SOLV-53-TIP3-H2-HT
160   54 2  -0.834   44.211028   66.442284   85.474632   #  SOLV-54-TIP3-OH2-OT
161   54 1  0.417 44.707056   66.585596   86.280632   #  SOLV-54-TIP3-H1-HT
162   54 1  0.417 43.47138 65.896596   85.741806   #  SOLV-54-TIP3-H2-HT
163   55 2  -0.834   52.644544   38.526085   88.244724   #  SOLV-55-TIP3-OH2-OT
164   55 1  0.417 52.824465   39.422199   88.529007   #  SOLV-55-TIP3-H1-HT
165   55 1  0.417 53.399427   38.28907 87.706005   #  SOLV-55-TIP3-H2-HT
166   56 2  -0.834   54.22238 61.539152   86.231388   #  SOLV-56-TIP3-OH2-OT
167   56 1  0.417 55.141689   61.740392   86.406418   #  SOLV-56-TIP3-H1-HT
168   56 1  0.417 53.788544   62.392263   86.216827   #  SOLV-56-TIP3-H2-HT
169   57 2  -0.834   48.864561   49.433449   89.42065 #  SOLV-57-TIP3-OH2-OT
170   57 1  0.417 48.084509   49.015839   89.055458   #  SOLV-57-TIP3-H1-HT
171   57 1  0.417 48.532227   50.209339   89.872116   #  SOLV-57-TIP3-H2-HT
172   58 2  -0.834   51.880352   63.800113   86.35083 #  SOLV-58-TIP3-OH2-OT
173   58 1  0.417 51.429045   64.113725   87.134521   #  SOLV-58-TIP3-H1-HT
174   58 1  0.417 52.695557   64.301184   86.326706   #  SOLV-58-TIP3-H2-HT
175   59 2  -0.834   54.802959   63.345216   89.307709   #  SOLV-59-TIP3-OH2-OT
176   59 1  0.417 55.651651   63.034152   89.622673   #  SOLV-59-TIP3-H1-HT
177   59 1  0.417 54.72028 64.226668   89.671604   #  SOLV-59-TIP3-H2-HT
178   60 2  -0.834   53.73051 48.022793   92.200569   #  SOLV-60-TIP3-OH2-OT
179   60 1  0.417 54.260496   48.796711   92.009941   #  SOLV-60-TIP3-H1-HT
180   60 1  0.417 54.328825   47.285851   92.076965   #  SOLV-60-TIP3-H2-HT
181   61 2  -0.834   48.092983   58.337772   86.805519   #  SOLV-61-TIP3-OH2-OT
182   61 1  0.417 48.500456   58.893341   87.469978   #  SOLV-61-TIP3-H1-HT
183   61 1  0.417 47.912024   57.514561   87.259064   #  SOLV-61-TIP3-H2-HT
184   62 2  -0.834   45.69464 44.934978   86.799278   #  SOLV-62-TIP3-OH2-OT
185   62 1  0.417 44.883231   45.093681   87.281685   #  SOLV-62-TIP3-H1-HT
186   62 1  0.417 46.377764   45.32737 87.342941   #  SOLV-62-TIP3-H2-HT
187   63 2  -0.834   46.096859   43.917236   89.948296   #  SOLV-63-TIP3-OH2-OT
188   63 1  0.417 46.454048   44.673107   90.414474   #  SOLV-63-TIP3-H1-HT
189   63 1  0.417 46.787941   43.664204   89.336258   #  SOLV-63-TIP3-H2-HT
190   64 2  -0.834   50.384832   47.57658 89.216866   #  SOLV-64-TIP3-OH2-OT
191   64 1  0.417 50.188324   47.273315   90.103203   #  SOLV-64-TIP3-H1-HT
192   64 1  0.417 49.730152   48.253151   89.044014   #  SOLV-64-TIP3-H2-HT
193   65 2  -0.834   48.094648   45.533237   88.238327   #  SOLV-65-TIP3-OH2-OT
194   65 1  0.417 48.573671   45.066437   88.923065   #  SOLV-65-TIP3-H1-HT
195   65 1  0.417 48.708612   46.198166   87.92664 #  SOLV-65-TIP3-H2-HT
196   66 2  -0.834   51.872553   55.140095   87.823265   #  SOLV-66-TIP3-OH2-OT
197   66 1  0.417 52.193392   56.030708   87.964966   #  SOLV-66-TIP3-H1-HT
198   66 1  0.417 50.926985   55.201189   87.959087   #  SOLV-66-TIP3-H2-HT
199   67 2  -0.834   52.849789   56.830967   89.620331   #  SOLV-67-TIP3-OH2-OT
200   67 1  0.417 53.716732   56.447155   89.488617   #  SOLV-67-TIP3-H1-HT
201   67 1  0.417 53.023937   57.742788   89.85376 #  SOLV-67-TIP3-H2-HT
202   68 2  -0.834   58.927028   37.872807   87.401752   #  SOLV-68-TIP3-OH2-OT
203   68 1  0.417 58.216968   37.969891   88.036201   #  SOLV-68-TIP3-H1-HT
204   68 1  0.417 58.532297   38.107742   86.561951   #  SOLV-68-TIP3-H2-HT
205   69 2  -0.834   60.302168   63.883416   88.50462 #  SOLV-69-TIP3-OH2-OT
206   69 1  0.417 60.566746   64.75244 88.202866   #  SOLV-69-TIP3-H1-HT
207   69 1  0.417 60.095417   64.003848   89.431416   #  SOLV-69-TIP3-H2-HT
208   70 2  -0.834   65.950615   48.009899   87.917953   #  SOLV-70-TIP3-OH2-OT
209   70 1  0.417 66.130901   47.194744   87.449646   #  SOLV-70-TIP3-H1-HT
210   70 1  0.417 66.061638   47.785412   88.841843   #  SOLV-70-TIP3-H2-HT
211   71 2  -0.834   67.494858   59.979568   88.390427   #  SOLV-71-TIP3-OH2-OT
212   71 1  0.417 66.67123 60.430199   88.203751   #  SOLV-71-TIP3-H1-HT
213   71 1  0.417 67.557205   59.304035   87.715157   #  SOLV-71-TIP3-H2-HT
214   72 2  -0.834   62.67025 52.697071   86.832195   #  SOLV-72-TIP3-OH2-OT
215   72 1  0.417 63.568394   52.369576   86.784096   #  SOLV-72-TIP3-H1-HT
216   72 1  0.417 62.691727   53.527273   86.356239   #  SOLV-72-TIP3-H2-HT
217   73 2  -0.834   63.782631   39.662544   86.670784   #  SOLV-73-TIP3-OH2-OT
218   73 1  0.417 63.57151 39.059917   87.383865   #  SOLV-73-TIP3-H1-HT
219   73 1  0.417 64.73444 39.608414   86.584728   #  SOLV-73-TIP3-H2-HT
220   74 2  -0.834   63.899891   57.232929   88.067509   #  SOLV-74-TIP3-OH2-OT
221   74 1  0.417 64.168266   57.547892   87.204361   #  SOLV-74-TIP3-H1-HT
222   74 1  0.417 64.517548   57.640659   88.674454   #  SOLV-74-TIP3-H2-HT
223   75 2  -0.834   60.791489   58.694077   87.699661   #  SOLV-75-TIP3-OH2-OT
224   75 1  0.417 60.812859   57.737328   87.679848   #  SOLV-75-TIP3-H1-HT
225   75 1  0.417 60.704233   58.913048   88.627441   #  SOLV-75-TIP3-H2-HT
226   76 2  -0.834   56.093445   65.564212   88.651154   #  SOLV-76-TIP3-OH2-OT
227   76 1  0.417 56.819467   66.168451   88.496143   #  SOLV-76-TIP3-H1-HT
228   76 1  0.417 56.452087   64.700647   88.446381   #  SOLV-76-TIP3-H2-HT
229   77 2  -0.834   62.954582   42.899025   86.643852   #  SOLV-77-TIP3-OH2-OT
230   77 1  0.417 62.642063   42.00275 86.767662   #  SOLV-77-TIP3-H1-HT
231   77 1  0.417 63.365173   43.127357   87.477829   #  SOLV-77-TIP3-H2-HT
232   78 2  -0.834   59.270227   41.982784   86.611298   #  SOLV-78-TIP3-OH2-OT
233   78 1  0.417 59.982158   41.623203   87.140556   #  SOLV-78-TIP3-H1-HT
234   78 1  0.417 59.205799   42.897621   86.885597   #  SOLV-78-TIP3-H2-HT
235   79 2  -0.834   57.612469   52.936085   90.61837 #  SOLV-79-TIP3-OH2-OT
236   79 1  0.417 57.218412   52.064409   90.584724   #  SOLV-79-TIP3-H1-HT
237   79 1  0.417 57.057682   53.426975   91.224586   #  SOLV-79-TIP3-H2-HT
238   80 2  -0.834   57.709085   68.675217   86.870316   #  SOLV-80-TIP3-OH2-OT
239   80 1  0.417 57.729311   68.554264   87.819626   #  SOLV-80-TIP3-H1-HT
240   80 1  0.417 57.855047   67.799017   86.513645   #  SOLV-80-TIP3-H2-HT
241   81 2  -0.834   60.403048   54.805817   88.266304   #  SOLV-81-TIP3-OH2-OT
242   81 1  0.417 60.808701   53.965408   88.479347   #  SOLV-81-TIP3-H1-HT
243   81 1  0.417 59.499184   54.71969 88.569412   #  SOLV-81-TIP3-H2-HT
244   82 2  -0.834   59.44531 40.105583   89.16502 #  SOLV-82-TIP3-OH2-OT
245   82 1  0.417 58.547687   40.281136   89.447273   #  SOLV-82-TIP3-H1-HT
246   82 1  0.417 59.991157   40.45726 89.868317   #  SOLV-82-TIP3-H2-HT
247   83 2  -0.834   59.60178 47.074051   89.366417   #  SOLV-83-TIP3-OH2-OT
248   83 1  0.417 59.11891 46.413235   89.862808   #  SOLV-83-TIP3-H1-HT
249   83 1  0.417 58.922764   47.606583   88.952133   #  SOLV-83-TIP3-H2-HT
250   84 2  -0.834   63.077305   54.050486   90.035606   #  SOLV-84-TIP3-OH2-OT
251   84 1  0.417 63.982571   53.74988 89.956093   #  SOLV-84-TIP3-H1-HT
252   84 1  0.417 62.964256   54.227119   90.969524   #  SOLV-84-TIP3-H2-HT
253   85 2  -0.834   68.814465   54.803841   88.708305   #  SOLV-85-TIP3-OH2-OT
254   85 1  0.417 69.521301   54.977345   89.330017   #  SOLV-85-TIP3-H1-HT
255   85 1  0.417 68.019592   54.806967   89.241615   #  SOLV-85-TIP3-H2-HT
256   86 2  -0.834   60.955133   47.54538 91.344288   #  SOLV-86-TIP3-OH2-OT
257   86 1  0.417 60.261349   48.178688   91.160362   #  SOLV-86-TIP3-H1-HT
258   86 1  0.417 60.597162   46.992153   92.03854 #  SOLV-86-TIP3-H2-HT
259   87 2  -0.834   57.307226   60.104473   90.6348  #  SOLV-87-TIP3-OH2-OT
260   87 1  0.417 57.82941 60.782501   90.206062   #  SOLV-87-TIP3-H1-HT
261   87 1  0.417 57.952808   59.515987   91.026203   #  SOLV-87-TIP3-H2-HT
262   88 2  -0.834   65.633205   54.761913   86.985699   #  SOLV-88-TIP3-OH2-OT
263   88 1  0.417 66.040108   54.261591   87.693054   #  SOLV-88-TIP3-H1-HT
264   88 1  0.417 64.802818   55.06497 87.352974   #  SOLV-88-TIP3-H2-HT
265   89 2  -0.834   69.45084 58.358156   85.796928   #  SOLV-89-TIP3-OH2-OT
266   89 1  0.417 69.896011   58.490757   86.633869   #  SOLV-89-TIP3-H1-HT
267   89 1  0.417 68.535637   58.574684   85.974976   #  SOLV-89-TIP3-H2-HT
268   90 2  -0.834   68.847641   44.766136   88.484756   #  SOLV-90-TIP3-OH2-OT
269   90 1  0.417 68.040806   45.187492   88.188511   #  SOLV-90-TIP3-H1-HT
270   90 1  0.417 68.556961   44.1087  89.116814   #  SOLV-90-TIP3-H2-HT
271   91 2  -0.834   58.10288 50.861782   87.087101   #  SOLV-91-TIP3-OH2-OT
272   91 1  0.417 59.011789   50.905827   87.383968   #  SOLV-91-TIP3-H1-HT
273   91 1  0.417 57.903147   49.925941   87.063599   #  SOLV-91-TIP3-H2-HT
274   92 2  -0.834   64.726952   50.315887   87.510017   #  SOLV-92-TIP3-OH2-OT
275   92 1  0.417 64.006336   50.171535   88.123356   #  SOLV-92-TIP3-H1-HT
276   92 1  0.417 65.504562   50.010597   87.977287   #  SOLV-92-TIP3-H2-HT
277   93 2  -0.834   72.444012   51.634655   86.285313   #  SOLV-93-TIP3-OH2-OT
278   93 1  0.417 72.977379   52.427425   86.342304   #  SOLV-93-TIP3-H1-HT
279   93 1  0.417 72.565742   51.20219 87.13052 #  SOLV-93-TIP3-H2-HT
280   94 2  -0.834   67.500374   52.159611   88.204475   #  SOLV-94-TIP3-OH2-OT
281   94 1  0.417 67.746231   52.168404   89.129501   #  SOLV-94-TIP3-H1-HT
282   94 1  0.417 68.211056   52.624506   87.76284 #  SOLV-94-TIP3-H2-HT
283   95 2  -0.834   55.838072   40.886833   89.730522   #  SOLV-95-TIP3-OH2-OT
284   95 1  0.417 56.195938   40.481911   88.94043 #  SOLV-95-TIP3-H1-HT
285   95 1  0.417 55.218544   40.241669   90.071327   #  SOLV-95-TIP3-H2-HT
286   96 2  -0.834   57.664883   59.548019   86.387489   #  SOLV-96-TIP3-OH2-OT
287   96 1  0.417 56.802933   59.495605   85.97456 #  SOLV-96-TIP3-H1-HT
288   96 1  0.417 57.543775   59.145851   87.247623   #  SOLV-96-TIP3-H2-HT
289   97 2  -0.834   62.137146   57.050097   90.426228   #  SOLV-97-TIP3-OH2-OT
290   97 1  0.417 62.918911   56.77564 89.946945   #  SOLV-97-TIP3-H1-HT
291   97 1  0.417 62.427044   57.12508 91.335396   #  SOLV-97-TIP3-H2-HT
292   98 2  -0.834   58.659281   57.838207   91.161507   #  SOLV-98-TIP3-OH2-OT
293   98 1  0.417 59.247814   57.202404   90.754662   #  SOLV-98-TIP3-H1-HT
294   98 1  0.417 58.118427   57.318417   91.756126   #  SOLV-98-TIP3-H2-HT
295   99 2  -0.834   64.207264   46.038574   88.06002 #  SOLV-99-TIP3-OH2-OT
296   99 1  0.417 63.342556   45.640205   88.158974   #  SOLV-99-TIP3-H1-HT
297   99 1  0.417 64.102329   46.927361   88.399529   #  SOLV-99-TIP3-H2-HT
298   100   2  -0.834   70.119976   43.448299   86.61499 #  SOLV-100-TIP3-OH2-OT
299   100   1  0.417 70.143532   42.492176   86.576355   #  SOLV-100-TIP3-H1-HT
300   100   1  0.417 69.863094   43.645901   87.515633   #  SOLV-100-TIP3-H2-HT
301   101   2  -0.834   57.460472   34.52557 87.532948   #  SOLV-101-TIP3-OH2-OT
302   101   1  0.417 56.93314 35.251698   87.19994 #  SOLV-101-TIP3-H1-HT
303   101   1  0.417 58.176824   34.947182   88.007656   #  SOLV-101-TIP3-H2-HT
304   102   2  -0.834   71.205997   47.652863   87.192764   #  SOLV-102-TIP3-OH2-OT
305   102   1  0.417 71.138863   48.471188   87.684788   #  SOLV-102-TIP3-H1-HT
306   102   1  0.417 71.436668   47.925083   86.304554   #  SOLV-102-TIP3-H2-HT
307   103   2  -0.834   55.747852   47.832733   91.003845   #  SOLV-103-TIP3-OH2-OT
308   103   1  0.417 55.570843   48.497711   90.338451   #  SOLV-103-TIP3-H1-HT
309   103   1  0.417 56.593996   47.461918   90.753464   #  SOLV-103-TIP3-H2-HT
310   104   2  -0.834   70.579762   60.796696   86.939732   #  SOLV-104-TIP3-OH2-OT
311   104   1  0.417 69.653484   60.555573   86.949562   #  SOLV-104-TIP3-H1-HT
312   104   1  0.417 70.687244   61.367448   87.700645   #  SOLV-104-TIP3-H2-HT
313   105   2  -0.834   68.140751   61.278372   86.394249   #  SOLV-105-TIP3-OH2-OT
314   105   1  0.417 67.369801   61.219872   85.830002   #  SOLV-105-TIP3-H1-HT
315   105   1  0.417 68.217503   62.210056   86.599964   #  SOLV-105-TIP3-H2-HT
316   106   2  -0.834   71.903732   55.60008 86.7439  #  SOLV-106-TIP3-OH2-OT
317   106   1  0.417 72.283699   54.760578   87.002861   #  SOLV-106-TIP3-H1-HT
318   106   1  0.417 71.015572   55.384041   86.459721   #  SOLV-106-TIP3-H2-HT
319   107   2  -0.834   55.839891   43.056324   86.723099   #  SOLV-107-TIP3-OH2-OT
320   107   1  0.417 56.205505   43.929352   86.865685   #  SOLV-107-TIP3-H1-HT
321   107   1  0.417 56.586975   42.465137   86.815765   #  SOLV-107-TIP3-H2-HT
322   108   2  -0.834   65.565609   43.849533   88.01889 #  SOLV-108-TIP3-OH2-OT
323   108   1  0.417 65.047169   43.584801   88.778709   #  SOLV-108-TIP3-H1-HT
324   108   1  0.417 65.204105   44.698952   87.765854   #  SOLV-108-TIP3-H2-HT
325   109   2  -0.834   59.955849   55.390146   91.338051   #  SOLV-109-TIP3-OH2-OT
326   109   1  0.417 59.318432   55.467751   92.047897   #  SOLV-109-TIP3-H1-HT
327   109   1  0.417 60.148352   54.453747   91.289688   #  SOLV-109-TIP3-H2-HT
328   110   2  -0.834   60.657692   48.280972   86.765636   #  SOLV-110-TIP3-OH2-OT
329   110   1  0.417 61.345184   47.615582   86.735996   #  SOLV-110-TIP3-H1-HT
330   110   1  0.417 60.16988 48.086544   87.565918   #  SOLV-110-TIP3-H2-HT
331   111   2  -0.834   64.77417 63.610312   86.538239   #  SOLV-111-TIP3-OH2-OT
332   111   1  0.417 65.566338   63.52524 87.068745   #  SOLV-111-TIP3-H1-HT
333   111   1  0.417 64.153343   62.998636   86.934113   #  SOLV-111-TIP3-H2-HT
334   112   2  -0.834   61.54788 34.979996   86.85471 #  SOLV-112-TIP3-OH2-OT
335   112   1  0.417 61.128603   35.840385   86.841141   #  SOLV-112-TIP3-H1-HT
336   112   1  0.417 60.847492   34.375546   87.100361   #  SOLV-112-TIP3-H2-HT
337   113   2  -0.834   68.088024   45.374588   86.058487   #  SOLV-113-TIP3-OH2-OT
338   113   1  0.417 68.848991   45.834892   86.41235 #  SOLV-113-TIP3-H1-HT
339   113   1  0.417 67.473644   46.070503   85.825111   #  SOLV-113-TIP3-H2-HT
340   114   2  -0.834   61.539768   52.69051 91.499249   #  SOLV-114-TIP3-OH2-OT
341   114   1  0.417 61.278418   51.877058   91.067699   #  SOLV-114-TIP3-H1-HT
342   114   1  0.417 62.142033   52.413174   92.189598   #  SOLV-114-TIP3-H2-HT
343   115   2  -0.834   58.948298   51.018099   90.216515   #  SOLV-115-TIP3-OH2-OT
344   115   1  0.417 58.393144   50.811447   90.96838 #  SOLV-115-TIP3-H1-HT
345   115   1  0.417 59.765995   50.550304   90.386189   #  SOLV-115-TIP3-H2-HT
346   116   2  -0.834   58.473953   56.236191   87.108315   #  SOLV-116-TIP3-OH2-OT
347   116   1  0.417 58.276611   56.881512   87.787178   #  SOLV-116-TIP3-H1-HT
348   116   1  0.417 58.243073   55.395008   87.502476   #  SOLV-116-TIP3-H2-HT
349   117   2  -0.834   57.246441   62.484669   86.276314   #  SOLV-117-TIP3-OH2-OT
350   117   1  0.417 58.191851   62.33522 86.280006   #  SOLV-117-TIP3-H1-HT
351   117   1  0.417 56.897623   61.830091   86.881386   #  SOLV-117-TIP3-H2-HT
352   118   2  -0.834   72.187805   44.847099   85.907742   #  SOLV-118-TIP3-OH2-OT
353   118   1  0.417 72.624245   44.073185   86.263836   #  SOLV-118-TIP3-H1-HT
354   118   1  0.417 71.331055   44.857082   86.334503   #  SOLV-118-TIP3-H2-HT
355   119   2  -0.834   65.388756   49.961666   90.574951   #  SOLV-119-TIP3-OH2-OT
356   119   1  0.417 65.029335   50.848473   90.600739   #  SOLV-119-TIP3-H1-HT
357   119   1  0.417 65.653439   49.783669   91.477459   #  SOLV-119-TIP3-H2-HT
358   120   2  -0.834   65.366604   47.327187   90.558361   #  SOLV-120-TIP3-OH2-OT
359   120   1  0.417 64.674377   46.760803   90.899532   #  SOLV-120-TIP3-H1-HT
360   120   1  0.417 65.237282   48.161995   91.008522   #  SOLV-120-TIP3-H2-HT
361   121   2  -0.834   60.540588   44.801754   89.102463   #  SOLV-121-TIP3-OH2-OT
362   121   1  0.417 60.987631   45.385094   89.715752   #  SOLV-121-TIP3-H1-HT
363   121   1  0.417 60.577457   43.941051   89.519714   #  SOLV-121-TIP3-H2-HT
364   122   2  -0.834   57.729988   54.466465   88.70586 #  SOLV-122-TIP3-OH2-OT
365   122   1  0.417 58.02285 53.561863   88.595619   #  SOLV-122-TIP3-H1-HT
366   122   1  0.417 56.776567   54.420435   88.634514   #  SOLV-122-TIP3-H2-HT
367   123   2  -0.834   58.382171   44.470776   87.599609   #  SOLV-123-TIP3-OH2-OT
368   123   1  0.417 58.522781   44.118057   88.47831 #  SOLV-123-TIP3-H1-HT
369   123   1  0.417 58.110733   45.377033   87.745422   #  SOLV-123-TIP3-H2-HT
370   124   2  -0.834   67.597557   42.872086   85.987511   #  SOLV-124-TIP3-OH2-OT
371   124   1  0.417 68.331387   42.629871   86.552383   #  SOLV-124-TIP3-H1-HT
372   124   1  0.417 67.479156   43.810116   86.136852   #  SOLV-124-TIP3-H2-HT
373   125   2  -0.834   61.96752 60.924408   88.435303   #  SOLV-125-TIP3-OH2-OT
374   125   1  0.417 62.11676 61.867896   88.373165   #  SOLV-125-TIP3-H1-HT
375   125   1  0.417 62.135792   60.714848   89.353989   #  SOLV-125-TIP3-H2-HT
376   126   2  -0.834   66.306557   57.244316   89.494698   #  SOLV-126-TIP3-OH2-OT
377   126   1  0.417 67.001328   56.72156 89.094353   #  SOLV-126-TIP3-H1-HT
378   126   1  0.417 65.723114   56.600555   89.896454   #  SOLV-126-TIP3-H2-HT
379   127   2  -0.834   61.732738   50.429352   87.66851 #  SOLV-127-TIP3-OH2-OT
380   127   1  0.417 61.338894   49.669113   88.096474   #  SOLV-127-TIP3-H1-HT
381   127   1  0.417 62.41914 50.715302   88.271294   #  SOLV-127-TIP3-H2-HT
382   128   2  -0.834   61.297134   67.08334 86.883934   #  SOLV-128-TIP3-OH2-OT
383   128   1  0.417 61.327087   67.229044   87.829506   #  SOLV-128-TIP3-H1-HT
384   128   1  0.417 61.841421   66.308593   86.743122   #  SOLV-128-TIP3-H2-HT
385   129   2  -0.834   56.726909   48.675392   86.813789   #  SOLV-129-TIP3-OH2-OT
386   129   1  0.417 56.766064   47.908028   87.384644   #  SOLV-129-TIP3-H1-HT